Crea una nuova applicazione con una finestra principale (container) e un menu File con le voci: Apri File, Chiudi applicazione.
Di seguito troverai alri menu da aggiungere.
Il linguaggio di sviluppo deve essere il migliore per avere una gestione a finestre, rapido nell'esecuzione con molte librerie matematiche necessarie all'elaborazione numerica dei segnali e dei file Touchstone.


La voce "Apri File" deve consentire di aprire uno piu file di tipo touchstone.
Per ciascun file aperto deve effettuare il parsing e caricare i dati in memoria
di seguito tre tipi di file con diverse strutture e intestazioni

I file touchstone hanno un numero di dati pari a 2 * (Numero di porte) + 1 (frequenza)

I file possono essere di tre tipi:
RI
	
MA
	
dB
	
di seguito alcuni esempi

Tipo 1:

!Agilent Technologies,E5071C,MY46110783,B.12.04
!Date: Tue Dec 08 09:29:47 2015
!Data & Calibration Information:
!Freq	S11:SOLT4(ON)	S12:SOLT4(ON)	S13:SOLT4(ON)	S14:SOLT4(ON)
!	S21:SOLT4(ON)	S22:SOLT4(ON)	S23:SOLT4(ON)	S24:SOLT4(ON)
!	S31:SOLT4(ON)	S32:SOLT4(ON)	S33:SOLT4(ON)	S34:SOLT4(ON)
!	S41:SOLT4(ON)	S42:SOLT4(ON)	S43:SOLT4(ON)	S44:SOLT4(ON)
!PortZ  Port1:50+j0    Port2:50+j0    Port3:50+j0    Port4:50+j0
!Above PortZ is port z conversion or system Z0 setting when saving the data.
!When reading, reference impedance value at option line is always used.
# Hz S MA R 50
17841213	5.073420e-001	4.144787e+000	4.742093e-001	4.278178e+000	4.964169e-001	-1.632977e+001	4.703062e-001	1.719748e+002
	4.744904e-001	4.290843e+000	5.076459e-001	4.149368e+000	4.700678e-001	1.719531e+002	4.959414e-001	-1.629735e+001
	4.966885e-001	-1.634492e+001	4.705175e-001	1.719320e+002	5.033507e-001	1.528839e+000	4.697591e-001	2.002792e+000
	4.699663e-001	1.719972e+002	4.956563e-001	-1.629846e+001	4.696777e-001	1.994513e+000	5.041401e-001	1.546727e+000
35682426	4.805733e-001	-1.741159e+001	4.490251e-001	-1.682200e+001	5.015578e-001	-2.037444e+001	4.553348e-001	1.522817e+002
	4.493410e-001	-1.681407e+001	4.819346e-001	-1.719054e+001	4.528811e-001	1.523686e+002	5.010938e-001	-2.000593e+001
	5.020916e-001	-2.040748e+001	4.538008e-001	1.522815e+002	4.360253e-001	-1.978449e+001	4.033616e-001	-1.749130e+001
	4.538823e-001	1.524253e+002	5.009181e-001	-2.006813e+001	4.003050e-001	-1.781507e+001	4.408094e-001	-1.926999e+001
53523639	3.333367e-001	-4.356052e+001	3.011200e-001	-4.229479e+001	6.270835e-001	-2.308139e+001	3.571702e-001	1.232096e+002
	3.011653e-001	-4.229002e+001	3.356013e-001	-4.288470e+001	3.558737e-001	1.231598e+002	6.281170e-001	-2.278938e+001
	6.274573e-001	-2.308275e+001	3.564326e-001	1.231139e+002	2.578456e-001	-1.273371e+001	2.400974e-001	-3.091532e+000
	3.568965e-001	1.231467e+002	6.275853e-001	-2.277965e+001	2.398478e-001	-3.199508e+000	2.594365e-001	-1.162830e+001



Tipo 2:

!Generated from: D:\Signal_Integrity\105)_Rafale_MPW\MLC\FA251229-024830-chk4\FA251229-024830-chk4_Clipped.spd
! Port1_POST::U1-DATA0N
! Port2_POST::U1-DATA0P
! Port3_POST::U1-DATA1N
! Port4_POST::U1-DATA1P
! Port5_D0P_2::U1-DATA0N
! Port6_D0N_2::U1-DATA0P
! Port7_D1N_2::U1-DATA1N
! Port8_D1P_2::U1-DATA1P
!
!Layout Workbench Version: 23.1.4.03211.488616   400
!Computer Host Name: RGVITPW09WEA3
!
!TouchstoneFormatFlag = 1
!.DiffChannels
!"Diff_Channel_U1-DATA0N_$_U1-DATA0P" "U1-DATA0N" "U1-DATA0P" "Port1_POST::U1-DATA0N" "Port2_POST::U1-DATA0P" "Port5_D0P_2::U1-DATA0N" "Port6_D0N_2::U1-DATA0P" "0" "1" "4" "5"
!"Diff_Channel_U1-DATA1N_$_U1-DATA1P" "U1-DATA1N" "U1-DATA1P" "Port3_POST::U1-DATA1N" "Port4_POST::U1-DATA1P" "Port7_D1N_2::U1-DATA1N" "Port8_D1P_2::U1-DATA1P" "2" "3" "6" "7"
!.EndDiffChannels
!
#	Hz	S	RI	R	50
1000	0.00735955904967272	-3.66142351138139e-08	0.000218135319613788	2.933142060204e-08	7.56514018313715e-05	7.81889513151649e-09	0.000146650522427992	1.35015081748922e-08
				0.991640440951022	-5.51501526637741e-07	-0.000218135319185202	-2.14000663530651e-08	-7.56514013754343e-05	9.55761882375746e-11	-0.000146650521965471	-5.56132330223614e-09
			0.000218135319615783	2.93314206019978e-08	0.00744207085454193	-1.86903351167329e-08	6.30632393534583e-05	5.58784920223803e-09	7.52623879422737e-05	7.89642389730534e-09
				-0.000218135319176409	-2.14002742199746e-08	0.991557929146142	-5.63946739348767e-07	-6.30632388892929e-05	2.28704288316255e-09	-7.5262387478541e-05	1.92432788457474e-11
			7.56514018301867e-05	7.81889513116305e-09	6.30632393533499e-05	5.58784920252643e-09	0.00749611799426232	-1.63633960633395e-08	0.000228673945088187	3.23568891089708e-08
				-7.56514013852356e-05	9.57228237476595e-11	-6.30632389062301e-05	2.28822056796203e-09	0.991503882006383	-5.74075579006628e-07	-0.000228673944672738	-2.44150877276589e-08
			0.000146650522427693	1.35015081765286e-08	7.5262387943664e-05	7.89642389760833e-09	0.000228673945086353	3.23568891100589e-08	0.00739734851706874	-3.6060067608141e-08
				-0.000146650521982968	-5.56017271516959e-09	-7.52623875023162e-05	2.12262878317943e-11	-0.00022867394468229	-2.44141551362899e-08	0.9916026514836	-5.53619355260441e-07
			0.99164044095102	-5.51501526638228e-07	-0.00021813531917755	-2.14002742205888e-08	-7.56514013842215e-05	9.57228236317322e-11	-0.000146650521982871	-5.56017271507186e-09
				0.00735955904794073	-3.61037807599357e-08	0.000218135318754548	2.91059898529454e-08	7.56514009398679e-05	7.62827227051663e-09	0.00014665052152986	1.33333376168663e-08
			-0.000218135319183612	-2.14000663533829e-08	0.991557929146143	-5.63946739349309e-07	-6.3063238906067e-05	2.2882205679392e-09	-7.52623875039578e-05	2.12262880241866e-11
				0.000218135318755882	2.91059898526873e-08	0.0074420708528353	-1.8170467321241e-08	6.30632384527123e-05	5.40599698672147e-09	7.52623870464068e-05	7.70676743658446e-09
			-7.56514013766575e-05	9.55761883984183e-11	-6.30632388897932e-05	2.2870428834296e-09	0.991503882006383	-5.74075579006953e-07	-0.000228673944680521	-2.44141551362823e-08
				7.56514009381793e-05	7.62827227059639e-09	6.3063238452488e-05	5.40599698614304e-09	0.00749611799262274	-1.59288274297074e-08	0.000228673944278194	3.21174117733824e-08
			-0.000146650521965552	-5.56132330321388e-09	-7.5262387476873e-05	1.92432789503328e-11	-0.000228673944673742	-2.44150877283247e-08	0.9916026514836	-5.53619355261822e-07
				0.000146650521529698	1.33333376163057e-08	7.52623870484167e-05	7.70676743636536e-09	0.000228673944276354	3.21174117729715e-08	0.00739734851538567	-3.5553950010888e-08
10001000	0.00741745958011643	-0.000428126509281136	0.000270672257000821	0.000240931914022931	8.37782260201132e-05	6.55026624511341e-05	0.000162984809312854	0.000116043002866226
				0.991565284020819	-0.00545329982854355	-0.000271204275921263	-0.000161330675614753	-8.36550790323572e-05	1.37303473186264e-05	-0.000162927358052078	-3.6518159806273e-05
			0.000270672257000851	0.000240931914022931	0.00755350325217334	-0.000328029469015013	6.43043839146024e-05	5.06080748589564e-05	8.3317326066345e-05	6.67630039267075e-05
				-0.000271210602716897	-0.000161326250835556	0.991429406842823	-0.0054983686810349	-6.41172754509133e-05	2.81992414473446e-05	-8.31979487153572e-05	1.24832906822687e-05
			8.37782260215463e-05	6.55026624511181e-05	6.43043839150784e-05	5.06080748589462e-05	0.00762648897638474	-0.000345256172552299	0.000290835799726512	0.000250969026048367
				-8.36696319608347e-05	1.37441110528167e-05	-6.41374334528048e-05	2.82226286428854e-05	0.991355767549105	-0.00555905635060105	-0.000291442227729361	-0.00017119897847694
			0.000162984809313625	0.000116043002866211	8.331732606691e-05	6.67630039267086e-05	0.00029083579972639	0.000250969026048363	0.00745960512744828	-0.000431087971557215
				-0.0001629427749807	-3.65005357075549e-05	-8.32173799519747e-05	1.2507655057913e-05	-0.000291442529499766	-0.000171197464446262	0.991523024108302	-0.0054659474990832
			0.99156528402082	-0.00545329982854355	-0.000271210602716831	-0.000161326250835556	-8.3669631961977e-05	1.37441110528293e-05	-0.000162942774981298	-3.65005357075544e-05
				0.00741735377583621	-0.000423506068455048	0.000272647310524555	0.000238160476988802	8.44569832210362e-05	6.34758539379978e-05	0.000163799640024343	0.000114177024738442
			-0.000271204275921609	-0.000161330675614752	0.991429406842821	-0.0054983686810349	-6.41374334535862e-05	2.8222628642896e-05	-8.32173799518819e-05	1.25076550579259e-05
				0.000272647310524682	0.000238160476988802	0.00755370714425751	-0.000323790167553266	6.48523633067149e-05	4.87294987294825e-05	8.40039506341728e-05	6.4751081189604e-05
			-8.36550790313528e-05	1.37303473186263e-05	-6.41172754501832e-05	2.81992414473475e-05	0.991355767549105	-0.00555905635060103	-0.000291442529499938	-0.000171197464446257
				8.44569832223532e-05	6.34758539379967e-05	6.48523633073437e-05	4.8729498729486e-05	0.00762707928733223	-0.000342092939518053	0.000292961442527499	0.000247942140359546
			-0.00016292735805179	-3.65181598062693e-05	-8.3197948714661e-05	1.24832906822683e-05	-0.000291442227729566	-0.000171198978476925	0.991523024108301	-0.00546594749908322
				0.000163799640024572	0.000114177024738443	8.40039506344084e-05	6.47510811896087e-05	0.000292961442527106	0.000247942140359545	0.0074595434774704	-0.000426568342183276


Tipo 3:

! Touchstone file exported from HFSS 2018.2.0
!        File:           D:/Ansoft_projects/ML9294A_springs.aedt
!        Generated:      12:58:45 PM  May 30, 2019
!        Design:         GSG
!        Project:        ML9294A_springs
!        Setup:          Setup1
!        Solution:       Logsweep
!
# GHZ S MA R 50.000000
! Terminal data exported
! Port[1] = Tip
! Port[2] = Post
1E-09            0.0785489419037081 93.6822952404355 0.995724203383144 4.52599615370854 0.995724203383144 4.52599615370854 0.0789249376764415 93.686314943204  
! Port Impedance50               0                0                0                0                0                50               0                

1.0471285480509E-09 0.0657383114191616 -92.7751439361466 0.99666115481859 -3.7853885323395 0.996661154818647 -3.78538853233929 0.0660148181608018 -92.7793757873622 
! Port Impedance50               0                0                0                0                0                50               0                

1.09647819614319E-09 0.117249780385889 -96.2010406962208 0.991886592086237 -6.76442976193578 0.991886592086292 -6.76442976193499 0.117790315512949 -96.2036260946868 
! Port Impedance50               0                0                0                0                0                50               0                

1.14815362149688E-09 0.0773716000780384 -93.6006311168258 0.995818053507942 -4.45763424537388 0.995818053507942 -4.45763424537388 0.0777291209026725 -93.6045731992018 
! Port Impedance50               0                0                0                0                0                50               0                

1.20226443461741E-09 0.170646752797959 99.4882936761098 0.984049117677787 9.87182536878997 0.984049117677874 9.87182536878993 0.17145517792957 99.4901021487242 
! Port Impedance50               0                0                0                0                0                50               0                

1.25892541179417E-09 0.00401554175915528 73.4219983387921 0.998831842330231 0.221688147792703 0.998831842330174 0.221688147791824 0.00404627324771675 73.5533336915718 
! Port Impedance50               0                0                0                0                0                50               0                



Tipo 4:
!Agilent Technologies,N5230A,MY45001538,A.06.04.05
!Agilent N5230A: A.06.04.05
!Date: Wednesday, April 08, 2026 15:49:36
!Correction: S11(Full 2 Port(1,2)) S21(Full 2 Port(1,2)) S12(Full 2 Port(1,2)) S22(Full 2 Port(1,2)) 
!S2P File: Measurements: S11, S21, S12, S22:
# Hz S  dB   R 50
300000 -1.907080e+001 -1.773331e+002 1.098586e+000 -1.339464e+000 1.602974e+000 1.385218e+000 -1.286585e+001 -1.785179e+002
25299625 -2.187672e+001 1.120743e+002 1.439755e+000 -1.131179e+001 4.052162e-001 -2.740057e+001 -1.619525e+001 -1.732112e+002
50299250 -1.996092e+001 7.032256e+001 1.206231e+000 1.412649e+002 1.017867e+000 1.400916e+002 -1.336539e+001 -1.793041e+002
75298875 -1.799053e+001 1.663307e+001 9.247397e-001 1.210339e+002 9.069977e-001 1.211692e+002 -1.360416e+001 1.762251e+002
100298500 -1.730494e+001 -3.878056e+001 6.503165e-001 -7.750806e+001 6.217467e-001 -7.876087e+001 -1.421380e+001 1.715693e+002
125298125 -2.023596e+001 -6.837180e+001 7.583047e-001 -9.263060e+001 2.059364e-001 -9.454373e+001 -1.440477e+001 -1.676063e+002
150297750 -1.682023e+001 -1.036162e+002 5.559635e-001 6.508132e+001 5.616576e-001 6.646078e+001 -1.257463e+001 1.736824e+002
175297375 -1.723403e+001 -1.538314e+002 2.349274e-001 -1.327753e+002 2.611014e-001 -1.332915e+002 -1.367020e+001 1.664218e+002
200297000 -1.982011e+001 1.678789e+002 4.305957e-002 -1.502911e+002 9.646590e-002 -1.503081e+002 -1.465927e+001 1.701570e+002
225296625 -1.967590e+001 1.300248e+002 1.590347e-001 -1.689688e+002 1.269391e-002 -1.680381e+002 -1.381150e+001 1.719026e+002
250296250 -1.989666e+001 6.819544e+001 -2.286866e-001 1.736396e+002 -2.832632e-001 1.732302e+002 -1.510033e+001 1.634239e+002
275295875 -1.898068e+001 2.385615e+001 -2.762614e-001 1.554029e+002 -3.211245e-001 1.558810e+002 -1.488395e+001 1.670559e+002
300295500 -1.683459e+001 -1.184695e+001 -4.547580e-001 1.376837e+002 -3.649432e-001 1.378397e+002 -1.475009e+001 1.648031e+002
325295125 -1.508766e+001 -5.006948e+001 -5.844231e-001 1.205573e+002 -5.694875e-001 1.197687e+002 -1.509949e+001 1.609290e+002
350294750 -1.477489e+001 -7.977139e+001 -6.670972e-001 1.022877e+002 -7.055762e-001 1.027017e+002 -1.531796e+001 1.556112e+002
375294375 -1.402398e+001 -1.046271e+002 -8.171679e-001 8.487605e+001 -7.671472e-001 8.505341e+001 -1.599262e+001 1.499583e+002
400294000 -1.394940e+001 -1.344167e+002 -9.024482e-001 6.772039e+001 -9.219393e-001 6.724969e+001 -1.707524e+001 1.422965e+002
425293625 -1.514178e+001 -1.589827e+002 -9.582967e-001 4.985530e+001 -1.003201e+000 5.054641e+001 -1.893787e+001 1.367989e+002
450293250 -1.567468e+001 1.756360e+002 -1.084348e+000 3.259831e+001 -9.936979e-001 3.258097e+001 -2.092265e+001 1.340921e+002
475292875 -1.723980e+001 1.437133e+002 -1.072771e+000 1.518487e+001 -1.128902e+000 1.487678e+001 -2.409254e+001 1.329148e+002
500292500 -1.925721e+001 1.140686e+002 -1.185240e+000 -2.893797e+000 -1.218721e+000 -2.353514e+000 -2.832928e+001 1.544801e+002
525292125 -2.040967e+001 7.420802e+001 -1.241762e+000 -1.969702e+001 -1.189894e+000 -1.975140e+001 -2.694582e+001 1.642917e+002
550291750 -2.133105e+001 2.903658e+001 -1.225493e+000 -3.725033e+001 -1.275325e+000 -3.765396e+001 -2.839743e+001 1.687824e+002
575291375 -2.181328e+001 -1.960470e+000 -1.290278e+000 -5.533227e+001 -1.316446e+000 -5.493866e+001 -3.103523e+001 1.738634e+002
600291000 -1.992007e+001 -2.791518e+001 -1.389852e+000 -7.268114e+001 -1.320311e+000 -7.289404e+001 -3.694452e+001 -1.668544e+002
625290625 -1.955854e+001 -5.350853e+001 -1.377468e+000 -9.032185e+001 -1.435134e+000 -9.062782e+001 -3.798146e+001 -7.801574e+001



Una volta caricati i dati devo essere in grado di visualizzarli accedendo ad un menu tabelle dove listerai le tabelle di ciascun file.
 
Dovrai poi generare una seconda tabella per ciascun file con le sole Magnitudini calcolate in modo corretto per ciascun tipo di file MA oppure RI oppure dB
Le Mangnitudini devono essere espresse in dB


crea poi una finestra accessibile dal menu Grafici.
Questa finestra dovra' avere una finestra grafico 
e una tabella dove poter selezionare per ciascun file caricato le relative magnitudini di ciascun parametro.
Nella finestra grafici, la tabella di selezione per i parametri da plottare deve avere il nome file nella colonna di sinistra ed i parametri dello stesso file listati nello colonne a fianco e devono essere tutti allineati, tante righe per quanti file sono caricati. al caricamento di un nuovo file, se la finestra grafici é aperta, deve essere aggiornata con la riga del nuovo file caricato 
Consentimi di scorrere i parametri da plottare per ciascun file


Il grafico deve essere su sfondo bianco, con indicate le frequenze nell-asse X e le ampiezze in quello Y
Mostra una griglia sul grafico
Mostra i valori sugli assi
Usa un grafico professionale
Il grafico deve rappresentare le magnitudini in dB delle relative tabelle
Nella finestra grafici inserisci un menu settings dove possa aprire una finestra di impostazioni nella quale decidere:
	Scala Lineare o logaritmica per Asse X
	Scala Lineare o logaritmica per asse Y
	Autorange o manuale per asse X
	Autorange o manuale per asse Y
	Nel caso selezioni manuale permettimi di inserire il valore minimo e massimo per Asse X e Y


Devo essere in grado di graficare piu parametri contemporaneamente anche appartenenti a file diversi

Le tabelle nella finestra principale devono essere visualizzate solo quando lo richiedo
